4
Properties=species:S:1:pos:R:3:forces:R:3 XYZ=T from=T PySCF=T energy=-11.726337216386618 pbc="F F F"
N       -0.05384448      -0.00000029      -0.00000000       0.00067203      -0.00000047       0.00000000
H       -0.43841344       0.94379394      -0.00000000      -0.00022283       0.00036140       0.00000000
H       -0.43842069      -0.47189487       0.81734802      -0.00022375      -0.00018031       0.00031268
H       -0.43842069      -0.47189487      -0.81734802      -0.00022375      -0.00018031      -0.00031268
