4
Properties=species:S:1:pos:R:3:forces:R:3 XYZ=T from=T PySCF=T energy=-11.718750680598056 pbc="F F F"
N        0.00000000       0.00000000       0.00000000       0.00000000      -0.00000020      -0.00000000
H       -0.00000000       0.99748286      -0.00000000       0.00000000       0.00495511      -0.00000000
H        0.00000000      -0.49874153       0.86384537      -0.00000000      -0.00247770       0.00429120
H        0.00000000      -0.49874153      -0.86384537       0.00000000      -0.00247770      -0.00429120
