6
Properties=species:S:1:pos:R:3:forces:R:3 XYZ=T from=T PySCF=T energy=-56.094990795619545 pbc="F F F"
C       -0.01504898      -0.00000030       0.00000000       0.01148891       0.00000022      -0.00000000
H        0.36276382       1.02651478       0.00000000      -0.00021012      -0.00026444       0.00000000
H        0.36277422      -0.51325526       0.88898623      -0.00020882       0.00013275      -0.00022949
H        0.36277422      -0.51325526      -0.88898623      -0.00020882       0.00013275       0.00022949
F       -1.44904898      -0.00000707       0.00000000      -0.00730985      -0.00000132      -0.00000000
F        2.55995102       0.00001187       0.00000000      -0.00355195       0.00000179       0.00000000
